 Gaussian 09, Revision A.02,
 Gaussian 09:  IA64L-G09RevA.02 11-Jun-2009

 ----------------------------------------------------------------------
 #CAM-B3LYP 6-31+G** td=(singlets,nstates=50) scrf=(pcm,solvent=chlorof
 orm)
 ----------------------------------------------------------------------

 --------------------
 OPBE/6-31G* geometry
 --------------------
 Symbolic Z-matrix:
 Charge =  0 Multiplicity = 1

                         Standard orientation:
 ---------------------------------------------------------------------
 Center     Atomic      Atomic             Coordinates (Angstroms)
 Number     Number       Type             X           Y           Z
 ---------------------------------------------------------------------
      1          6           0       -4.206858    0.502067    0.768514
      2          6           0       -4.515613    0.990783   -0.505301
      3          6           0       -3.507498    1.367202   -1.398285
      4          6           0       -2.175504    1.229364   -0.988853
      5          6           0       -1.844585    0.715590    0.282245
      6          6           0       -2.867392    0.372821    1.166133
      7          7           0       -1.027050    1.501942   -1.710985
      8          6           0        0.094689    1.552416   -0.816070
      9          6           0       -0.324022    0.720325    0.446758
     10          7           0        0.377220    2.892438   -0.267384
     11          6           0        0.867148    2.783769    1.096847
     12          6           0        0.105148    1.585302    1.667717
     13          6           0        0.505017    3.994697   -1.047717
     14          6           0        0.910029    5.285955   -0.313304
     15          7           0        0.697431    5.197347    1.119462
     16          6           0        0.701339    4.075150    1.889473
     17          6           0        0.203853    6.517336   -0.929086
     18          6           0        0.867148    7.830526   -0.500139
     19          6           0       -1.306501    6.530382   -0.680488
     20          8           0        0.607279    4.090083    3.113218
     21          8           0        0.319687    3.990752   -2.268769
     22          6           0        4.206858   -0.502067    0.768514
     23          6           0        4.515613   -0.990783   -0.505301
     24          6           0        3.507498   -1.367202   -1.398285
     25          6           0        2.175504   -1.229364   -0.988853
     26          6           0        1.844585   -0.715590    0.282245
     27          6           0        2.867392   -0.372821    1.166133
     28          7           0        1.027050   -1.501942   -1.710985
     29          6           0       -0.094689   -1.552416   -0.816070
     30          6           0        0.324022   -0.720325    0.446758
     31          7           0       -0.377220   -2.892438   -0.267384
     32          6           0       -0.867148   -2.783769    1.096847
     33          6           0       -0.105148   -1.585302    1.667717
     34          6           0       -0.505017   -3.994697   -1.047717
     35          6           0       -0.910029   -5.285955   -0.313304
     36          7           0       -0.697431   -5.197347    1.119462
     37          6           0       -0.701339   -4.075150    1.889473
     38          6           0       -0.203853   -6.517336   -0.929086
     39          6           0       -0.867148   -7.830526   -0.500139
     40          6           0        1.306501   -6.530382   -0.680488
     41          8           0       -0.607279   -4.090083    3.113218
     42          8           0       -0.319687   -3.990752   -2.268769
     43          1           0       -5.005142    0.234960    1.461388
     44          1           0       -5.559240    1.097168   -0.806184
     45          1           0       -3.751589    1.767926   -2.382960
     46          1           0       -2.647073    0.029628    2.177338
     47          1           0       -1.027431    2.203880   -2.443178
     48          1           0        0.999499    1.177477   -1.311164
     49          1           0        1.950624    2.558621    1.080830
     50          1           0       -0.776608    1.944311    2.208663
     51          1           0        0.719731    1.042447    2.390077
     52          1           0        1.993344    5.400594   -0.522475
     53          1           0        0.661274    6.063732    1.644556
     54          1           0        0.365592    6.397543   -2.010597
     55          1           0        0.723826    8.054067    0.568280
     56          1           0        0.431538    8.672175   -1.056027
     57          1           0        1.948253    7.825164   -0.700768
     58          1           0       -1.766870    7.378808   -1.205375
     59          1           0       -1.782078    5.614155   -1.052455
     60          1           0       -1.551697    6.629277    0.386149
     61          1           0        5.005142   -0.234960    1.461388
     62          1           0        5.559240   -1.097168   -0.806184
     63          1           0        3.751589   -1.767926   -2.382960
     64          1           0        2.647073   -0.029628    2.177338
     65          1           0        1.027431   -2.203880   -2.443178
     66          1           0       -0.999499   -1.177477   -1.311164
     67          1           0       -1.950624   -2.558621    1.080830
     68          1           0        0.776608   -1.944311    2.208663
     69          1           0       -0.719731   -1.042447    2.390077
     70          1           0       -1.993344   -5.400594   -0.522475
     71          1           0       -0.661274   -6.063732    1.644556
     72          1           0       -0.365592   -6.397543   -2.010597
     73          1           0       -0.723826   -8.054067    0.568280
     74          1           0       -1.948253   -7.825164   -0.700768
     75          1           0       -0.431538   -8.672175   -1.056027
     76          1           0        1.551697   -6.629277    0.386149
     77          1           0        1.782078   -5.614155   -1.052455
     78          1           0        1.766870   -7.378808   -1.205375
 ---------------------------------------------------------------------

 SCF Done:  E(RCAM-B3LYP) =  -1869.78257675     A.U. after   16 cycles

 Excitation energies and oscillator strengths:

 Excited State   1:      Singlet-B      4.6242 eV  268.12 nm  f=0.1642  <S**2>=0.000
     149 ->160        -0.10298
     150 ->152         0.50926
     151 ->153         0.35338
     151 ->154        -0.18252
     151 ->156        -0.13137
 This state for optimization and/or second-order correction.
 Copying the excited state density for this state as the 1-particle RhoCI density.

 Excited State   2:      Singlet-A      4.6386 eV  267.29 nm  f=0.0324  <S**2>=0.000
     149 ->161         0.12436
     150 ->153         0.32606
     150 ->154        -0.17046
     150 ->156        -0.12460
     151 ->152         0.53082

 Excited State   3:      Singlet-B      5.3890 eV  230.07 nm  f=0.1887  <S**2>=0.000
     149 ->152        -0.16515
     150 ->152         0.11499
     150 ->157         0.14865
     150 ->159        -0.15368
     150 ->160        -0.31466
     150 ->162         0.14439
     150 ->166         0.10270
     151 ->153        -0.18165
     151 ->158        -0.19081
     151 ->161         0.39206
     151 ->164         0.10054

 Excited State   4:      Singlet-A      5.4432 eV  227.78 nm  f=0.0533  <S**2>=0.000
     148 ->152        -0.12823
     149 ->153        -0.10817
     150 ->156         0.12634
     150 ->158        -0.14274
     150 ->161         0.36707
     151 ->157         0.19828
     151 ->159        -0.21875
     151 ->160        -0.30454
     151 ->162         0.15169
     151 ->166         0.11157

 Excited State   5:      Singlet-B      5.4686 eV  226.72 nm  f=0.0032  <S**2>=0.000
     142 ->157        -0.10809
     142 ->159         0.10414
     143 ->156         0.10738
     150 ->159        -0.25387
     150 ->160         0.11179
     151 ->153         0.24469
     151 ->156         0.34321
     151 ->158         0.10700

 Excited State   6:      Singlet-A      5.4868 eV  225.97 nm  f=0.0095  <S**2>=0.000
     142 ->156        -0.12864
     145 ->156         0.10785
     150 ->153         0.23971
     150 ->156         0.28722
     150 ->158         0.12999
     151 ->159        -0.21015
     151 ->160         0.21733

 Excited State   7:      Singlet-B      5.6249 eV  220.42 nm  f=0.0240  <S**2>=0.000
     150 ->152        -0.11411
     150 ->157        -0.26199
     150 ->159        -0.14844
     150 ->160        -0.14870
     151 ->153         0.27375
     151 ->154         0.26951
     151 ->156         0.12220
     151 ->164         0.17020

 Excited State   8:      Singlet-A      5.6380 eV  219.91 nm  f=0.0010  <S**2>=0.000
     150 ->153         0.30150
     150 ->154         0.24755
     150 ->156         0.13005
     150 ->164         0.15982
     151 ->152        -0.13094
     151 ->157        -0.28721
     151 ->159        -0.19752
     151 ->160        -0.14844

 Excited State   9:      Singlet-A      5.7519 eV  215.55 nm  f=0.0009  <S**2>=0.000
     140 ->160        -0.12991
     140 ->162        -0.10824
     140 ->166        -0.13932
     141 ->164         0.14791
     141 ->165         0.20830
     144 ->160         0.10740
     144 ->166         0.11731
     145 ->165        -0.12998
     147 ->164        -0.13452
     147 ->165        -0.18819

 Excited State  10:      Singlet-B      5.7522 eV  215.54 nm  f=0.0015  <S**2>=0.000
     140 ->164        -0.13260
     140 ->165        -0.17755
     141 ->160         0.14773
     141 ->162         0.12684
     141 ->166         0.15956
     141 ->168         0.11651
     143 ->165         0.14468
     144 ->164         0.10380
     144 ->165         0.16802
     146 ->165         0.12064
     147 ->160        -0.13998
     147 ->162        -0.11620
     147 ->166        -0.14294
     148 ->165        -0.11310

 Excited State  11:      Singlet-A      5.9341 eV  208.94 nm  f=0.0087  <S**2>=0.000
     150 ->153        -0.13989
     150 ->156         0.20228
     150 ->158         0.23130
     151 ->152         0.19197
     151 ->155        -0.12717
     151 ->157         0.25193
     151 ->159        -0.20860
     151 ->160         0.18715

 Excited State  12:      Singlet-B      5.9363 eV  208.86 nm  f=0.0519  <S**2>=0.000
     150 ->152         0.20854
     150 ->155        -0.13745
     150 ->157         0.23005
     150 ->159        -0.13804
     150 ->160         0.14605
     151 ->153        -0.16228
     151 ->156         0.21118
     151 ->158         0.30005

 Excited State  13:      Singlet-B      6.0094 eV  206.32 nm  f=0.0721  <S**2>=0.000
     150 ->152         0.31289
     150 ->157        -0.22931
     151 ->153        -0.30960
     151 ->154         0.34305
     151 ->161        -0.20718

 Excited State  14:      Singlet-A      6.0287 eV  205.66 nm  f=0.0051  <S**2>=0.000
     150 ->153         0.35714
     150 ->154        -0.31791
     150 ->161         0.11820
     151 ->152        -0.33750
     151 ->157         0.25795

 Excited State  15:      Singlet-A      6.1347 eV  202.10 nm  f=0.0071  <S**2>=0.000
     150 ->156         0.16556
     150 ->158        -0.21236
     150 ->161         0.10863
     150 ->164        -0.19057
     151 ->155         0.38663
     151 ->166         0.16781
     151 ->168        -0.10603
     151 ->169         0.15885

 Excited State  16:      Singlet-B      6.1402 eV  201.92 nm  f=0.0162  <S**2>=0.000
     149 ->152        -0.13241
     150 ->152        -0.17083
     150 ->155        -0.27868
     150 ->160        -0.13411
     150 ->166        -0.12788
     150 ->169        -0.16006
     151 ->156        -0.21807
     151 ->158         0.28448
     151 ->164         0.21051
     151 ->167        -0.13913
     151 ->170        -0.11972

 Excited State  17:      Singlet-B      6.2298 eV  199.02 nm  f=0.3178  <S**2>=0.000
     148 ->153         0.17603
     149 ->152         0.26364
     150 ->155         0.17008
     150 ->157        -0.13002
     150 ->159         0.11432
     150 ->160        -0.13131
     150 ->169        -0.11721
     150 ->171         0.19288
     151 ->153        -0.12628
     151 ->158         0.26765
     151 ->161         0.14788
     151 ->163         0.19802
     151 ->172         0.13119

 Excited State  18:      Singlet-A      6.2385 eV  198.74 nm  f=0.0662  <S**2>=0.000
     148 ->152         0.12600
     149 ->153         0.12192
     150 ->154        -0.11696
     150 ->158         0.34869
     150 ->161         0.12664
     150 ->163         0.15129
     150 ->172         0.14730
     151 ->155         0.12854
     151 ->159         0.16809
     151 ->160        -0.16639
     151 ->169        -0.18845
     151 ->171         0.21311

 Excited State  19:      Singlet-B      6.2963 eV  196.92 nm  f=0.3147  <S**2>=0.000
     148 ->153         0.17524
     148 ->154        -0.12107
     149 ->152         0.37590
     150 ->155        -0.23117
     150 ->157         0.20098
     150 ->171        -0.10851
     151 ->154         0.20804
     151 ->158        -0.11109
     151 ->165         0.15392
     151 ->170        -0.11109
     151 ->172        -0.12104

 Excited State  20:      Singlet-B      6.3072 eV  196.58 nm  f=0.2648  <S**2>=0.000
     148 ->161        -0.12935
     149 ->152        -0.20277
     149 ->160         0.14037
     150 ->152         0.11401
     150 ->159         0.23763
     150 ->160        -0.16403
     150 ->166         0.17000
     151 ->153         0.10983
     151 ->161        -0.12529
     151 ->164        -0.21992
     151 ->165         0.25862
     151 ->170        -0.14396
     151 ->176        -0.12420

 Excited State  21:      Singlet-A      6.3130 eV  196.40 nm  f=0.0414  <S**2>=0.000
     148 ->152         0.17322
     149 ->153         0.11319
     149 ->154        -0.11094
     150 ->153         0.13371
     150 ->154         0.20525
     150 ->164        -0.13487
     150 ->165         0.25640
     150 ->170        -0.15285
     150 ->172        -0.12867
     150 ->176        -0.11044
     151 ->155        -0.14629
     151 ->157         0.16899
     151 ->159         0.10639
     151 ->160        -0.18605
     151 ->166         0.15573
     151 ->171        -0.13181
     151 ->177         0.10968

 Excited State  22:      Singlet-A      6.3723 eV  194.57 nm  f=0.1525  <S**2>=0.000
     148 ->152         0.40114
     149 ->153         0.26071
     149 ->154        -0.12174
     150 ->164         0.12977
     150 ->165        -0.11926
     150 ->170         0.10920
     151 ->159        -0.19425
     151 ->162         0.10683
     151 ->166        -0.13686
     151 ->169         0.11830
     151 ->177        -0.10136

 Excited State  23:      Singlet-B      6.4354 eV  192.66 nm  f=0.2780  <S**2>=0.000
     148 ->153         0.12935
     148 ->161        -0.18801
     149 ->157        -0.13147
     149 ->159         0.13024
     149 ->160         0.23136
     150 ->157         0.17114
     150 ->159        -0.11316
     150 ->166        -0.11209
     150 ->169         0.17706
     150 ->177        -0.11348
     151 ->153         0.14150
     151 ->156        -0.13356
     151 ->161        -0.13390
     151 ->163         0.17007
     151 ->165        -0.10582
     151 ->170         0.13430
     151 ->172         0.10413

 Excited State  24:      Singlet-A      6.4849 eV  191.19 nm  f=0.0000  <S**2>=0.000
     148 ->152        -0.12372
     149 ->161        -0.15832
     150 ->153         0.15403
     150 ->154         0.19050
     150 ->163         0.19759
     150 ->167        -0.11934
     150 ->172         0.10898
     150 ->175         0.11753
     151 ->155        -0.15573
     151 ->159         0.23626
     151 ->162         0.18503
     151 ->166        -0.15464
     151 ->169         0.16321
     151 ->177        -0.18048

 Excited State  25:      Singlet-B      6.5127 eV  190.37 nm  f=0.0540  <S**2>=0.000
     150 ->155        -0.12354
     150 ->159         0.27352
     150 ->160         0.14606
     150 ->162         0.21836
     150 ->171        -0.12192
     150 ->177        -0.16209
     151 ->154         0.28154
     151 ->161         0.12303
     151 ->163         0.16670
     151 ->164        -0.12811
     151 ->167        -0.20801
     151 ->175         0.12333

 Excited State  26:      Singlet-A      6.5221 eV  190.10 nm  f=0.0002  <S**2>=0.000
     148 ->160        -0.10821
     149 ->161         0.15572
     150 ->156         0.30688
     150 ->161         0.19299
     150 ->163        -0.12059
     150 ->164        -0.17776
     151 ->155        -0.17419
     151 ->157        -0.20283
     151 ->159         0.21136
     151 ->162         0.16985
     151 ->171        -0.12952

 Excited State  27:      Singlet-A      6.5615 eV  188.96 nm  f=0.0453  <S**2>=0.000
     148 ->157         0.16671
     148 ->159        -0.13480
     148 ->160        -0.10430
     149 ->153        -0.17865
     149 ->161         0.19477
     150 ->154         0.21978
     150 ->156        -0.10243
     150 ->161        -0.16015
     150 ->163         0.17164
     151 ->155         0.19629
     151 ->157         0.21938
     151 ->162         0.14030

 Excited State  28:      Singlet-B      6.5637 eV  188.89 nm  f=0.1132  <S**2>=0.000
     148 ->153         0.12718
     149 ->160         0.11460
     150 ->155        -0.25543
     150 ->157        -0.25794
     150 ->159         0.18153
     150 ->160        -0.13603
     150 ->166        -0.11871
     151 ->154        -0.17461
     151 ->156         0.31566
     151 ->163        -0.19165

 Excited State  29:      Singlet-B      6.6064 eV  187.67 nm  f=0.0899  <S**2>=0.000
     144 ->156        -0.13424
     144 ->164         0.13123
     145 ->152        -0.10634
     145 ->159         0.11924
     145 ->160        -0.11979
     146 ->153        -0.11763
     147 ->152        -0.11294
     147 ->157        -0.16730
     147 ->159         0.17037
     148 ->153         0.18888
     148 ->156         0.23537
     148 ->161         0.12181
     149 ->152        -0.12625
     149 ->160        -0.11846
     150 ->155         0.12028
     150 ->157         0.10323

 Excited State  30:      Singlet-A      6.6129 eV  187.49 nm  f=0.0182  <S**2>=0.000
     150 ->154         0.17649
     150 ->156        -0.29012
     150 ->161         0.29580
     150 ->170        -0.14949
     151 ->160         0.35162
     151 ->166         0.20413
     151 ->169        -0.11734

 Excited State  31:      Singlet-B      6.6340 eV  186.89 nm  f=0.1047  <S**2>=0.000
     148 ->161        -0.13731
     149 ->160         0.11676
     150 ->160         0.37888
     150 ->166         0.14532
     150 ->169        -0.12201
     151 ->156        -0.16014
     151 ->161         0.33849
     151 ->165        -0.10488
     151 ->170        -0.13747

 Excited State  32:      Singlet-A      6.6400 eV  186.72 nm  f=0.0181  <S**2>=0.000
     145 ->156         0.10867
     147 ->153         0.13095
     147 ->156         0.10609
     148 ->157        -0.14011
     149 ->153         0.13810
     150 ->158         0.13408
     150 ->161        -0.18090
     150 ->164        -0.17199
     151 ->159        -0.11095
     151 ->160        -0.22089
     151 ->162         0.23985
     151 ->166         0.11937
     151 ->171        -0.12823

 Excited State  33:      Singlet-B      6.6741 eV  185.77 nm  f=0.0322  <S**2>=0.000
     150 ->155        -0.13480
     150 ->159         0.20895
     150 ->160         0.12088
     150 ->162        -0.24170
     150 ->166        -0.23271
     150 ->171         0.14792
     151 ->156         0.11434
     151 ->161         0.11815
     151 ->164         0.21076
     151 ->165         0.26248
     151 ->167         0.17734
     151 ->178         0.13924

 Excited State  34:      Singlet-A      6.6930 eV  185.24 nm  f=0.0271  <S**2>=0.000
     147 ->153         0.10793
     148 ->160        -0.17169
     149 ->161         0.16073
     150 ->154         0.10467
     150 ->158         0.11703
     150 ->161         0.12030
     150 ->163         0.16657
     150 ->167         0.28898
     150 ->178         0.13416
     151 ->155        -0.11612
     151 ->159         0.10029
     151 ->162        -0.13516
     151 ->171         0.15196
     151 ->173        -0.11694
     151 ->174        -0.17380

 Excited State  35:      Singlet-B      6.7039 eV  184.94 nm  f=0.0444  <S**2>=0.000
     150 ->155        -0.18279
     150 ->168         0.10043
     150 ->169         0.17921
     150 ->174        -0.18502
     151 ->158         0.24123
     151 ->163         0.15215
     151 ->164        -0.20187
     151 ->167         0.37717
     151 ->172        -0.11464

 Excited State  36:      Singlet-A      6.7250 eV  184.36 nm  f=0.0369  <S**2>=0.000
     148 ->160         0.13254
     149 ->161        -0.11524
     150 ->158         0.22622
     150 ->164        -0.14276
     150 ->165        -0.19480
     150 ->167         0.22760
     150 ->176        -0.10807
     151 ->155        -0.12346
     151 ->166         0.20350
     151 ->168         0.16275
     151 ->169         0.15583
     151 ->174        -0.14924

 Excited State  37:      Singlet-A      6.7876 eV  182.66 nm  f=0.0015  <S**2>=0.000
     146 ->157        -0.11430
     148 ->155         0.15239
     148 ->157        -0.18951
     148 ->159        -0.22877
     149 ->153         0.28431
     149 ->154         0.30732
     149 ->156         0.19964
     150 ->164        -0.11392

 Excited State  38:      Singlet-B      6.8029 eV  182.25 nm  f=0.0109  <S**2>=0.000
     146 ->153         0.10050
     146 ->156         0.12060
     147 ->152         0.10049
     148 ->153         0.23370
     148 ->154         0.27637
     148 ->164         0.11777
     149 ->155         0.14292
     149 ->157        -0.27625
     149 ->159        -0.22287
     150 ->160        -0.10670
     151 ->164        -0.10412

 Excited State  39:      Singlet-B      6.8220 eV  181.74 nm  f=0.0018  <S**2>=0.000
     143 ->156         0.12283
     145 ->155        -0.17776
     146 ->153        -0.12956
     146 ->154        -0.26038
     146 ->156         0.14244
     147 ->152         0.12541
     147 ->155         0.26623
     150 ->162         0.10167
     151 ->165         0.13485

 Excited State  40:      Singlet-A      6.8222 eV  181.74 nm  f=0.0636  <S**2>=0.000
     142 ->156        -0.12923
     143 ->155         0.10801
     144 ->155        -0.12610
     145 ->154         0.15457
     145 ->156        -0.12183
     146 ->152         0.12822
     146 ->155         0.29660
     147 ->153        -0.11565
     147 ->154        -0.25422
     147 ->156         0.13952
     150 ->165         0.10572

 Excited State  41:      Singlet-B      6.8509 eV  180.97 nm  f=0.0185  <S**2>=0.000
     150 ->157        -0.11023
     150 ->162         0.35702
     150 ->171        -0.11451
     151 ->164         0.11898
     151 ->165         0.36887
     151 ->167         0.12095
     151 ->172        -0.13836

 Excited State  42:      Singlet-A      6.8607 eV  180.72 nm  f=0.0000  <S**2>=0.000
     150 ->154        -0.12826
     150 ->164         0.16878
     150 ->165         0.42891
     150 ->167         0.16131
     150 ->172        -0.13400
     151 ->160         0.10543
     151 ->162         0.30293
     151 ->181        -0.11535

 Excited State  43:      Singlet-A      6.8836 eV  180.12 nm  f=0.0149  <S**2>=0.000
     150 ->158        -0.11863
     150 ->161        -0.19687
     150 ->163        -0.10131
     150 ->164        -0.11767
     150 ->175        -0.12676
     150 ->176         0.20466
     150 ->178         0.12011
     151 ->155        -0.12491
     151 ->162         0.22105
     151 ->166         0.13692
     151 ->169        -0.15473
     151 ->171         0.39922

 Excited State  44:      Singlet-B      6.8913 eV  179.91 nm  f=0.0046  <S**2>=0.000
     150 ->162         0.20305
     150 ->169        -0.17912
     150 ->171         0.30291
     151 ->154         0.12545
     151 ->163        -0.15931
     151 ->164        -0.17179
     151 ->175        -0.12138
     151 ->176         0.29907

 Excited State  45:      Singlet-B      6.9533 eV  178.31 nm  f=0.0533  <S**2>=0.000
     150 ->155        -0.14352
     150 ->160         0.14825
     150 ->162         0.14356
     150 ->166         0.25682
     150 ->168         0.22233
     150 ->171         0.20636
     151 ->154        -0.15487
     151 ->156         0.10498
     151 ->158        -0.14670
     151 ->161        -0.20359
     151 ->163         0.13970
     151 ->164         0.17444
     151 ->167        -0.10023
     151 ->176        -0.15335
     151 ->178         0.12370

 Excited State  46:      Singlet-A      6.9776 eV  177.69 nm  f=0.0085  <S**2>=0.000
     150 ->154        -0.16774
     150 ->156         0.14784
     150 ->158        -0.11457
     150 ->161        -0.17142
     150 ->163         0.12093
     150 ->164         0.31615
     150 ->167        -0.18494
     150 ->172         0.10734
     150 ->176        -0.22074
     151 ->160         0.11580
     151 ->166         0.21181
     151 ->168         0.20963
     151 ->169         0.12466

 Excited State  47:      Singlet-A      6.9978 eV  177.17 nm  f=0.0515  <S**2>=0.000
     144 ->155         0.10090
     145 ->154        -0.10591
     150 ->154         0.12115
     150 ->158         0.10857
     150 ->163        -0.17943
     150 ->164         0.15364
     150 ->165        -0.18867
     150 ->175        -0.13337
     151 ->155         0.21042
     151 ->157         0.14484
     151 ->159         0.18094
     151 ->168         0.14263
     151 ->173        -0.17111
     151 ->180        -0.10655

 Excited State  48:      Singlet-B      7.0017 eV  177.08 nm  f=0.1005  <S**2>=0.000
     144 ->154        -0.13553
     144 ->165         0.11744
     145 ->155         0.12987
     145 ->157         0.12696
     145 ->168        -0.11500
     146 ->153        -0.10158
     146 ->165        -0.13910
     150 ->155         0.11014

 The electronic state is 1-A.
 Alpha  occ. eigenvalues --  -19.21863 -19.21863 -19.21733 -19.21733 -14.46138
 Alpha  occ. eigenvalues --  -14.46138 -14.45659 -14.45659 -14.42695 -14.42695
 Alpha  occ. eigenvalues --  -10.39218 -10.39218 -10.39215 -10.39215 -10.34604
 Alpha  occ. eigenvalues --  -10.34603 -10.33046 -10.33046 -10.32951 -10.32951
 Alpha  occ. eigenvalues --  -10.31065 -10.31065 -10.30973 -10.30957 -10.28129
 Alpha  occ. eigenvalues --  -10.28129 -10.28053 -10.28053 -10.27826 -10.27826
 Alpha  occ. eigenvalues --  -10.27551 -10.27551 -10.27541 -10.27541 -10.27023
 Alpha  occ. eigenvalues --  -10.27023 -10.26637 -10.26637 -10.26023 -10.26023
 Alpha  occ. eigenvalues --  -10.25428 -10.25428  -1.15117  -1.15089  -1.13878
 Alpha  occ. eigenvalues --   -1.13872  -1.08145  -1.07487  -1.04374  -1.04210
 Alpha  occ. eigenvalues --   -1.01737  -1.01726  -0.94312  -0.93488  -0.92320
 Alpha  occ. eigenvalues --   -0.90046  -0.89938  -0.88690  -0.85938  -0.85212
 Alpha  occ. eigenvalues --   -0.83502  -0.82993  -0.82170  -0.81171  -0.80550
 Alpha  occ. eigenvalues --   -0.80418  -0.77269  -0.77255  -0.75534  -0.74402
 Alpha  occ. eigenvalues --   -0.73715  -0.72609  -0.70136  -0.70071  -0.67967
 Alpha  occ. eigenvalues --   -0.67295  -0.66780  -0.66408  -0.66212  -0.65316
 Alpha  occ. eigenvalues --   -0.63690  -0.61764  -0.61637  -0.61483  -0.61449
 Alpha  occ. eigenvalues --   -0.59469  -0.59434  -0.58552  -0.58025  -0.57476
 Alpha  occ. eigenvalues --   -0.56214  -0.56125  -0.55904  -0.55429  -0.54634
 Alpha  occ. eigenvalues --   -0.54421  -0.53262  -0.53108  -0.52398  -0.52217
 Alpha  occ. eigenvalues --   -0.51507  -0.51490  -0.51212  -0.50788  -0.50615
 Alpha  occ. eigenvalues --   -0.50495  -0.50007  -0.49886  -0.49594  -0.49110
 Alpha  occ. eigenvalues --   -0.49048  -0.48540  -0.48436  -0.47274  -0.46799
 Alpha  occ. eigenvalues --   -0.46378  -0.46363  -0.45917  -0.45604  -0.45419
 Alpha  occ. eigenvalues --   -0.45122  -0.44766  -0.44670  -0.43688  -0.43507
 Alpha  occ. eigenvalues --   -0.43311  -0.42459  -0.41785  -0.41746  -0.41446
 Alpha  occ. eigenvalues --   -0.41261  -0.40888  -0.40790  -0.40477  -0.40315
 Alpha  occ. eigenvalues --   -0.40026  -0.38646  -0.38428  -0.37695  -0.35556
 Alpha  occ. eigenvalues --   -0.35504  -0.34889  -0.34795  -0.33424  -0.33221
 Alpha  occ. eigenvalues --   -0.32584  -0.32393  -0.31311  -0.30963  -0.26683
 Alpha  occ. eigenvalues --   -0.26350
 Alpha virt. eigenvalues --    0.01225   0.01977   0.02373   0.02689   0.03077
 Alpha virt. eigenvalues --    0.03239   0.03526   0.03555   0.03792   0.03987
 Alpha virt. eigenvalues --    0.04416   0.04429   0.04671   0.04773   0.04965

 Mulliken atomic charges:
              1
     1  C   -0.373807
     2  C   -0.128902
     3  C   -0.373539
     4  C   -0.036752
     5  C    0.201712
     6  C   -0.143109
     7  N   -0.438041
     8  C   -0.304849
     9  C   -0.454777
    10  N    0.270066
    11  C   -0.465071
    12  C    0.310255
    13  C    0.426767
    14  C    0.188630
    15  N   -0.432099
    16  C    0.538621
    17  C   -0.035660
    18  C   -0.488547
    19  C   -0.551296
    20  O   -0.529970
    21  O   -0.510869
    22  C   -0.373807
    23  C   -0.128902
    24  C   -0.373539
    25  C   -0.036752
    26  C    0.201712
    27  C   -0.143109
    28  N   -0.438041
    29  C   -0.304849
    30  C   -0.454777
    31  N    0.270066
    32  C   -0.465071
    33  C    0.310255
    34  C    0.426767
    35  C    0.188630
    36  N   -0.432099
    37  C    0.538621
    38  C   -0.035660
    39  C   -0.488547
    40  C   -0.551296
    41  O   -0.529970
    42  O   -0.510869
    43  H    0.143006
    44  H    0.147290
    45  H    0.146697
    46  H    0.130934
    47  H    0.365371
    48  H    0.187755
    49  H    0.201567
    50  H    0.189107
    51  H    0.170865
    52  H    0.182171
    53  H    0.345034
    54  H    0.179246
    55  H    0.147279
    56  H    0.163398
    57  H    0.158566
    58  H    0.155770
    59  H    0.158065
    60  H    0.159116
    61  H    0.143006
    62  H    0.147290
    63  H    0.146697
    64  H    0.130934
    65  H    0.365371
    66  H    0.187755
    67  H    0.201567
    68  H    0.189107
    69  H    0.170865
    70  H    0.182171
    71  H    0.345034
    72  H    0.179246
    73  H    0.147279
    74  H    0.158566
    75  H    0.163398
    76  H    0.159116
    77  H    0.158065
    78  H    0.155770
 Sum of Mulliken atomic charges =   0.00000

 Dipole moment (field-independent basis, Debye):
    X=              0.0000    Y=              0.0000    Z=             -1.9957  Tot=              1.9957
 Quadrupole moment (field-independent basis, Debye-Ang):
   XX=           -234.0391   YY=           -209.7823   ZZ=           -289.6744
   XY=              7.8995   XZ=              0.0000   YZ=              0.0000

 Normal termination of Gaussian 09 at Fri Dec  3 09:48:25 2010.
