 Gaussian 09, Revision A.02,
 Gaussian 09:  IA64L-G09RevA.02 11-Jun-2009

 ----------------------------------------------------------------------
 #M06 6-31+G** opt=(fccards,gdiis) freq=noraman scrf=(pcm,solvent=dichl
 oromethane) integral=(grid=ultrafine)
 ----------------------------------------------------------------------

 -----------------------------------
 mirta 1 trienone reactive conformer
 -----------------------------------
 Symbolic Z-matrix:
 Charge =  0 Multiplicity = 1

 SCF Done:  E(RM06) =  -1034.85174237     A.U. after   16 cycles
 SCF Done:  E(RM06) =  -1034.85911428     A.U. after   15 cycles
 SCF Done:  E(RM06) =  -1034.86235025     A.U. after   17 cycles
 SCF Done:  E(RM06) =  -1034.86692157     A.U. after   17 cycles
 SCF Done:  E(RM06) =  -1034.86802186     A.U. after   17 cycles
 SCF Done:  E(RM06) =  -1034.86923229     A.U. after   17 cycles
 SCF Done:  E(RM06) =  -1034.86731643     A.U. after   17 cycles
 SCF Done:  E(RM06) =  -1034.87004921     A.U. after   16 cycles
 SCF Done:  E(RM06) =  -1034.86921670     A.U. after   16 cycles
 SCF Done:  E(RM06) =  -1034.86999490     A.U. after   17 cycles
 SCF Done:  E(RM06) =  -1034.87016202     A.U. after   17 cycles
 SCF Done:  E(RM06) =  -1034.87044839     A.U. after   17 cycles
 SCF Done:  E(RM06) =  -1034.87050873     A.U. after   13 cycles
 SCF Done:  E(RM06) =  -1034.87051172     A.U. after   12 cycles
 SCF Done:  E(RM06) =  -1034.87051494     A.U. after   12 cycles
 SCF Done:  E(RM06) =  -1034.87051512     A.U. after   11 cycles
 SCF Done:  E(RM06) =  -1034.87051523     A.U. after    9 cycles
 Optimization completed.
    -- Stationary point found.

 1\1\GINC-CN066\FOpt\RM06\6-31+G(d,p)\C21H16O3\UVIQOANV\08-Oct-2010\0\\
 #M06 6-31+G** opt=(fccards,gdiis) freq=noraman scrf=(pcm,solvent=dichl
 oromethane) integral=(grid=ultrafine)\\mirta 1 trienone reactive confo
 rmer\\0,1\C,6.0011411621,-0.8751231098,0.1419456885\C,5.8710366348,0.1
 799386284,-0.7678551493\C,4.6339222058,0.7733786633,-0.9557106866\C,3.
 5164468882,0.3348829261,-0.2348802806\C,3.6707347848,-0.7200139213,0.6
 639877709\C,4.9037279749,-1.3330606764,0.858493303\H,6.9689512798,-1.3
 468866277,0.2913694142\H,6.7361640599,0.5293035358,-1.3243230572\H,4.4

 Normal termination of Gaussian 09 at Fri Oct  8 06:34:12 2010.

 ---------------------------------------------------------------------
 #N Geom=AllCheck Guess=TCheck SCRF=Check GenChk RM06/6-31+G(d,p) Freq
 ---------------------------------------------------------------------

 mirta 1 trienone reactive conformer
 -----------------------------------
 Redundant internal coordinates taken from checkpoint file:
 mirta_1_rc_m06.chk
 Charge =  0 Multiplicity = 1

                         Standard orientation:
 ---------------------------------------------------------------------
 Center     Atomic      Atomic             Coordinates (Angstroms)
 Number     Number       Type             X           Y           Z
 ---------------------------------------------------------------------
      1          6           0        5.710655   -1.648661   -0.249692
      2          6           0        5.677023   -0.544523   -1.108510
      3          6           0        4.524421    0.217910   -1.198617
      4          6           0        3.398205   -0.099447   -0.429496
      5          6           0        3.455186   -1.206165    0.416970
      6          6           0        4.601389   -1.987760    0.513200
      7          1           0        6.611455   -2.252667   -0.177035
      8          1           0        6.550357   -0.289115   -1.701984
      9          1           0        4.464436    1.079222   -1.859414
     10          6           0        2.166402    0.700272   -0.509531
     11          8           0        2.384390   -1.601462    1.175238
     12          1           0        4.604061   -2.845822    1.179582
     13          6           0        1.127467    0.359523    0.469154
     14          6           0        1.214291   -0.895013    1.231712
     15          8           0        0.337313   -1.358149    1.929856
     16          8           0        2.015983    1.567492   -1.369784
     17          6           0       -0.331226    2.458331    0.367075
     18          6           0       -0.020725    1.090942    0.670076
     19          6           0       -1.648949    2.837775    0.289971
     20          6           0        0.738315    3.510257    0.303608
     21          6           0       -2.786806    0.728495   -0.321222
     22          1           0       -0.786601    0.568809    1.249893
     23          6           0       -2.788580    1.975488    0.218738
     24          1           0        1.161956    3.593681   -0.701747
     25          1           0        1.568487    3.277546    0.979922
     26          1           0        0.320742    4.481334    0.589362
     27          6           0       -3.902508   -0.203091   -0.352846
     28          1           0       -1.892027    0.399414   -0.854006
     29          1           0       -1.855369    3.909276    0.277500
     30          1           0       -3.728100    2.393912    0.582321
     31          6           0       -5.064597   -0.028308    0.417825
     32          6           0       -3.813158   -1.330891   -1.184065
     33          6           0       -4.855800   -2.246666   -1.259718
     34          6           0       -6.006811   -2.053285   -0.499102
     35          6           0       -6.105774   -0.942268    0.340778
     36          1           0       -5.147674    0.821488    1.092019
     37          1           0       -2.912322   -1.480864   -1.777084
     38          1           0       -4.769913   -3.112852   -1.910907
     39          1           0       -6.823517   -2.768845   -0.553145
     40          1           0       -6.997965   -0.795057    0.944400
 ---------------------------------------------------------------------

 SCF Done:  E(RM06) =  -1034.87051523     A.U. after    2 cycles

 The electronic state is 1-A.
 Alpha  occ. eigenvalues --  -19.31544 -19.24131 -19.23342 -10.41486 -10.36439
 Alpha  occ. eigenvalues --  -10.35341 -10.31232 -10.29813 -10.29682 -10.29554
 Alpha  occ. eigenvalues --  -10.29024 -10.28883 -10.28791 -10.28599 -10.28596
 Alpha  occ. eigenvalues --  -10.28499 -10.28098 -10.27887 -10.27865 -10.27809
 Alpha  occ. eigenvalues --  -10.27744 -10.27619 -10.27543 -10.25655  -1.16171
 Alpha  occ. eigenvalues --   -1.07087  -1.06896  -0.89389  -0.89121  -0.87503
 Alpha  occ. eigenvalues --   -0.83817  -0.81443  -0.79122  -0.78776  -0.77293
 Alpha  occ. eigenvalues --   -0.76514  -0.71973  -0.70520  -0.67249  -0.65887
 Alpha  occ. eigenvalues --   -0.63961  -0.62618  -0.62496  -0.59709  -0.59113
 Alpha  occ. eigenvalues --   -0.55749  -0.53997  -0.53687  -0.51997  -0.50924
 Alpha  occ. eigenvalues --   -0.50461  -0.49694  -0.48764  -0.47407  -0.47240
 Alpha  occ. eigenvalues --   -0.46381  -0.45904  -0.45615  -0.45380  -0.44101
 Alpha  occ. eigenvalues --   -0.43452  -0.43020  -0.42599  -0.41729  -0.41498
 Alpha  occ. eigenvalues --   -0.40620  -0.40132  -0.39531  -0.38767  -0.38385
 Alpha  occ. eigenvalues --   -0.37106  -0.36829  -0.36487  -0.36033  -0.34225
 Alpha  occ. eigenvalues --   -0.32382  -0.31592  -0.28912  -0.28376  -0.28180
 Alpha  occ. eigenvalues --   -0.27851  -0.26781  -0.23634
 Alpha virt. eigenvalues --   -0.11099  -0.06113  -0.03868  -0.02438  -0.01986
 Alpha virt. eigenvalues --   -0.01696  -0.01598  -0.01446  -0.01087  -0.01018
 Alpha virt. eigenvalues --   -0.00342   0.00043   0.00364   0.00549   0.01069

 Mulliken atomic charges:
              1
     1  C   -0.209597
     2  C    0.019536
     3  C    0.036305
     4  C    0.902251
     5  C   -1.427677
     6  C    0.138542
     7  H    0.178679
     8  H    0.173048
     9  H    0.181256
    10  C    0.019374
    11  O   -0.429582
    12  H    0.180283
    13  C    0.139058
    14  C    0.360827
    15  O   -0.486643
    16  O   -0.548664
    17  C    0.900817
    18  C   -0.221716
    19  C   -0.401369
    20  C   -0.335139
    21  C   -0.165652
    22  H    0.180917
    23  C    0.006524
    24  H    0.203457
    25  H    0.162319
    26  H    0.161268
    27  C   -0.301363
    28  H    0.143017
    29  H    0.164008
    30  H    0.154047
    31  C    0.042285
    32  C   -0.260791
    33  C   -0.156629
    34  C   -0.161295
    35  C   -0.155092
    36  H    0.147184
    37  H    0.157870
    38  H    0.170208
    39  H    0.169197
    40  H    0.168932
 Sum of Mulliken atomic charges =   0.00000

 Dipole moment (field-independent basis, Debye):
    X=             -1.7211    Y=              1.6086    Z=             -0.9938  Tot=              2.5568
 Quadrupole moment (field-independent basis, Debye-Ang):
   XX=            -95.7233   YY=           -129.3980   ZZ=           -148.5964
   XY=             -7.0584   XZ=             -2.5329   YZ=             13.4523

  Exact polarizability: 641.569   7.174 378.083 -21.563  -0.636 242.738
 Approx polarizability: 606.444   1.709 439.574 -32.778  -8.197 296.056

                     1                      2                      3
                     A                      A                      A
 Frequencies --    18.2469                26.2082                31.0025
 Red. masses --     6.3972                 7.1564                 3.8176
 Frc consts  --     0.0013                 0.0029                 0.0022
 IR Inten    --     1.8259                 1.9784                 0.0702

                     4                      5                      6
                     A                      A                      A
 Frequencies --    47.1667                71.4413                82.8326
 Red. masses --     6.6898                 4.5345                 5.8111
 Frc consts  --     0.0088                 0.0136                 0.0235
 IR Inten    --     4.0148                 1.7694                 0.9150

                     7                      8                      9
                     A                      A                      A
 Frequencies --    94.9878               130.7451               155.1348
 Red. masses --     4.7235                 4.6669                 2.9449
 Frc consts  --     0.0251                 0.0470                 0.0418
 IR Inten    --     9.3511                 1.8467                 4.5060

                    10                     11                     12
                     A                      A                      A
 Frequencies --   168.9299               177.1911               215.2932
 Red. masses --     4.0636                 3.3935                 1.8203
 Frc consts  --     0.0683                 0.0628                 0.0497
 IR Inten    --     0.9246                22.9963                11.0158

                    13                     14                     15
                     A                      A                      A
 Frequencies --   232.3172               262.6270               288.3169
 Red. masses --     3.4257                 5.9798                 2.7997
 Frc consts  --     0.1089                 0.2430                 0.1371
 IR Inten    --     6.8041                 0.3143                 6.9810

                    16                     17                     18
                     A                      A                      A
 Frequencies --   292.6044               305.8084               335.8192
 Red. masses --     5.7194                 4.1248                 4.8016
 Frc consts  --     0.2885                 0.2273                 0.3190
 IR Inten    --    20.3577                 6.6701                 3.0440

                    19                     20                     21
                     A                      A                      A
 Frequencies --   376.6543               388.2976               407.5361
 Red. masses --     3.5043                 4.6142                 2.9721
 Frc consts  --     0.2929                 0.4099                 0.2908
 IR Inten    --    20.2617                11.6443                 3.4255

                    22                     23                     24
                     A                      A                      A
 Frequencies --   412.3308               428.7938               447.2970
 Red. masses --     5.3654                 4.7631                 3.7947
 Frc consts  --     0.5375                 0.5160                 0.4473
 IR Inten    --    36.5312                16.6545                38.4619

                    25                     26                     27
                     A                      A                      A
 Frequencies --   455.5161               494.4831               525.9633
 Red. masses --     6.7620                 3.0173                 3.5548
 Frc consts  --     0.8267                 0.4347                 0.5794
 IR Inten    --     9.9067                10.3142                18.0661

                    28                     29                     30
                     A                      A                      A
 Frequencies --   533.6457               542.0328               554.7338
 Red. masses --     5.4975                 5.4614                 3.4737
 Frc consts  --     0.9224                 0.9454                 0.6298
 IR Inten    --    13.1235                 9.7029                88.3901

                    31                     32                     33
                     A                      A                      A
 Frequencies --   587.3941               623.0102               656.1553
 Red. masses --     4.5857                 6.3785                 7.2079
 Frc consts  --     0.9322                 1.4587                 1.8284
 IR Inten    --    72.9725                 0.2817                12.1665

                    34                     35                     36
                     A                      A                      A
 Frequencies --   680.8572               689.2971               692.6455
 Red. masses --     7.3119                 2.6823                 2.6561
 Frc consts  --     1.9971                 0.7509                 0.7508
 IR Inten    --    12.3549                35.8467                18.9624

                    37                     38                     39
                     A                      A                      A
 Frequencies --   696.3089               727.3906               744.8895
 Red. masses --     4.8633                 4.7601                 6.6241
 Frc consts  --     1.3893                 1.4839                 2.1655
 IR Inten    --    23.6527                31.3864                 3.9603

                    40                     41                     42
                     A                      A                      A
 Frequencies --   757.0522               763.4686               807.0807
 Red. masses --     1.7937                 1.5302                 3.7409
 Frc consts  --     0.6057                 0.5255                 1.4357
 IR Inten    --    47.5922               171.9640                65.6489

                    43                     44                     45
                     A                      A                      A
 Frequencies --   844.5580               848.8038               852.1005
 Red. masses --     1.3585                 3.6078                 1.5992
 Frc consts  --     0.5709                 1.5315                 0.6841
 IR Inten    --     1.8550                31.4134                24.4038

                    46                     47                     48
                     A                      A                      A
 Frequencies --   875.9182               891.8337               904.3471
 Red. masses --     1.4816                 3.4503                 5.5444
 Frc consts  --     0.6697                 1.6168                 2.6716
 IR Inten    --     4.8864               135.9862                36.3477

                    49                     50                     51
                     A                      A                      A
 Frequencies --   927.9743               940.6060               956.1535
 Red. masses --     1.4413                 1.5793                 1.5384
 Frc consts  --     0.7313                 0.8233                 0.8287
 IR Inten    --    11.8402                29.5294               298.7268

                    52                     53                     54
                     A                      A                      A
 Frequencies --   972.2549               979.8653               984.0942
 Red. masses --     1.3681                 1.2574                 1.3521
 Frc consts  --     0.7620                 0.7113                 0.7715
 IR Inten    --     1.1393                43.0538                19.9583

                    55                     56                     57
                     A                      A                      A
 Frequencies --   994.7739               998.5403              1002.6755
 Red. masses --     6.9954                 1.3158                 1.2927
 Frc consts  --     4.0786                 0.7730                 0.7657
 IR Inten    --    11.9548                 0.0343                 4.2655

                    58                     59                     60
                     A                      A                      A
 Frequencies --  1005.9128              1016.4482              1039.4546
 Red. masses --     5.2881                 1.5218                 1.5746
 Frc consts  --     3.1526                 0.9264                 1.0024
 IR Inten    --     0.9764                96.0000               106.5484

                    61                     62                     63
                     A                      A                      A
 Frequencies --  1050.2682              1052.2815              1098.5864
 Red. masses --     2.0490                 1.7334                 1.5227
 Frc consts  --     1.3317                 1.1309                 1.0828
 IR Inten    --     9.4341                 9.6936                20.5458

                    64                     65                     66
                     A                      A                      A
 Frequencies --  1109.3021              1121.0342              1124.3572
 Red. masses --     2.8537                 1.6789                 1.6935
 Frc consts  --     2.0690                 1.2431                 1.2614
 IR Inten    --    34.5039                81.8178                65.9154

                    67                     68                     69
                     A                      A                      A
 Frequencies --  1149.4662              1157.2533              1179.3533
 Red. masses --     1.1140                 1.0742                 1.1127
 Frc consts  --     0.8672                 0.8476                 0.9119
 IR Inten    --     9.1911                 0.7403                29.9351

                    70                     71                     72
                     A                      A                      A
 Frequencies --  1222.2530              1230.4647              1236.7555
 Red. masses --     3.7848                 1.6403                 2.0976
 Frc consts  --     3.3313                 1.4632                 1.8904
 IR Inten    --  1047.1821                37.6469                19.4913

                    73                     74                     75
                     A                      A                      A
 Frequencies --  1263.6868              1274.5949              1303.4717
 Red. masses --     2.1801                 3.4359                 1.5835
 Frc consts  --     2.0512                 3.2888                 1.5851
 IR Inten    --   219.0515               150.9574                48.5147

                    76                     77                     78
                     A                      A                      A
 Frequencies --  1313.9915              1317.5174              1345.1441
 Red. masses --     1.8486                 1.8484                 1.5217
 Frc consts  --     1.8805                 1.8904                 1.6223
 IR Inten    --   285.8699                17.0920                82.6342

                    79                     80                     81
                     A                      A                      A
 Frequencies --  1357.0022              1380.5139              1384.5801
 Red. masses --     1.9973                 4.5895                 1.2912
 Frc consts  --     2.1669                 5.1535                 1.4584
 IR Inten    --   213.2595                 9.1093                26.8984

                    82                     83                     84
                     A                      A                      A
 Frequencies --  1390.2738              1418.3690              1445.9721
 Red. masses --     8.7284                 1.9019                 1.3449
 Frc consts  --     9.9399                 2.2543                 1.6568
 IR Inten    --    23.1356               277.3693                26.3176

                    85                     86                     87
                     A                      A                      A
 Frequencies --  1459.5040              1476.1436              1493.5156
 Red. masses --     1.1290                 2.5130                 3.3397
 Frc consts  --     1.4169                 3.2263                 4.3891
 IR Inten    --    97.8498                63.7206               532.1324

                    88                     89                     90
                     A                      A                      A
 Frequencies --  1510.3585              1522.8729              1546.0725
 Red. masses --     3.1021                 2.5676                 4.5175
 Frc consts  --     4.1693                 3.5084                 6.3622
 IR Inten    --    45.1205                10.1075              2371.4251

                    91                     92                     93
                     A                      A                      A
 Frequencies --  1609.6888              1633.6153              1647.7635
 Red. masses --     6.4334                 6.0083                 7.6836
 Frc consts  --     9.8214                 9.4471                12.2915
 IR Inten    --    29.7404                20.8009                31.7736

                    94                     95                     96
                     A                      A                      A
 Frequencies --  1661.6328              1670.0597              1671.2088
 Red. masses --     6.1603                 6.1827                 6.5625
 Frc consts  --    10.0212                10.1600                10.7989
 IR Inten    --    32.2889               175.2860               223.1294

                    97                     98                     99
                     A                      A                      A
 Frequencies --  1728.3728              1801.5531              3039.1508
 Red. masses --    12.1808                12.5945                 1.0375
 Frc consts  --    21.4388                24.0837                 5.6461
 IR Inten    --   754.8744               445.4525                65.6849

                   100                    101                    102
                     A                      A                      A
 Frequencies --  3125.2691              3129.6921              3137.9473
 Red. masses --     1.1024                 1.0863                 1.0923
 Frc consts  --     6.3443                 6.2692                 6.3371
 IR Inten    --    12.5018                 9.0977                 0.9377

                   103                    104                    105
                     A                      A                      A
 Frequencies --  3138.6983              3143.4202              3154.1512
 Red. masses --     1.0981                 1.0873                 1.0894
 Frc consts  --     6.3738                 6.3299                 6.3856
 IR Inten    --    10.7486                48.9931                37.5389

                   106                    107                    108
                     A                      A                      A
 Frequencies --  3171.8261              3177.6258              3184.9825
 Red. masses --     1.0883                 1.0867                 1.0903
 Frc consts  --     6.4510                 6.4647                 6.5167
 IR Inten    --     6.0898                 2.5223                 2.1472

                   109                    110                    111
                     A                      A                      A
 Frequencies --  3186.4868              3192.9593              3193.5920
 Red. masses --     1.0864                 1.0953                 1.0900
 Frc consts  --     6.4995                 6.5793                 6.5500
 IR Inten    --     2.7230                39.4252                 2.1642

                   112                    113                    114
                     A                      A                      A
 Frequencies --  3201.4698              3202.2705              3207.8025
 Red. masses --     1.0995                 1.0947                 1.0991
 Frc consts  --     6.6398                 6.6140                 6.6634
 IR Inten    --    47.5247                14.3296                25.6795

 - Thermochemistry -
 -------------------
 Temperature   298.150 Kelvin.  Pressure   1.00000 Atm.
 Atom     1 has atomic number  6 and mass  12.00000

 Molecular mass:   316.10994 amu.
 Principal axes and moments of inertia in atomic units:
                           1         2         3
     Eigenvalues --  3963.96283********************
           X            0.99999   0.00230  -0.00260
           Y           -0.00225   0.99981   0.01941
           Z            0.00264  -0.01940   0.99981
 This molecule is an asymmetric top.
 Rotational symmetry number  1.
 Warning -- assumption of classical behavior for rotation
           may cause significant error
 Rotational temperatures (Kelvin)      0.02185     0.00548     0.00482
 Rotational constants (GHZ):           0.45529     0.11427     0.10050
 Zero-point vibrational energy     818915.7 (Joules/Mol)
                                  195.72556 (Kcal/Mol)
 Warning -- explicit consideration of  31 degrees of freedom as
           vibrations may cause significant error
 Vibrational temperatures:     26.25    37.71    44.61    67.86   102.79
          (Kelvin)            119.18   136.67   188.11   223.20   243.05
                              254.94   309.76   334.25   377.86   414.82
                              420.99   439.99   483.17   541.92   558.67
                              586.35   593.25   616.94   643.56   655.39
                              711.45   756.74   767.80   779.86   798.14
                              845.13   896.37   944.06   979.60   991.74
                              996.56  1001.83  1046.55  1071.73  1089.23
                             1098.46  1161.21  1215.13  1221.24  1225.98
                             1260.25  1283.15  1301.15  1335.15  1353.32
                             1375.69  1398.86  1409.81  1415.89  1431.26
                             1436.67  1442.62  1447.28  1462.44  1495.54
                             1511.10  1514.00  1580.62  1596.04  1612.92
                             1617.70  1653.82  1665.03  1696.82  1758.55
                             1770.36  1779.41  1818.16  1833.86  1875.40
                             1890.54  1895.61  1935.36  1952.42  1986.25
                             1992.10  2000.29  2040.71  2080.43  2099.90
                             2123.84  2148.83  2173.07  2191.07  2224.45
                             2315.98  2350.41  2370.76  2390.72  2402.84
                             2404.49  2486.74  2592.03  4372.65  4496.56
                             4502.92  4514.80  4515.88  4522.67  4538.11
                             4563.54  4571.89  4582.47  4584.64  4593.95
                             4594.86  4606.20  4607.35  4615.31

 Zero-point correction=                           0.311909 (Hartree/Particle)
 Thermal correction to Energy=                    0.331944
 Thermal correction to Enthalpy=                  0.332888
 Thermal correction to Gibbs Free Energy=         0.261020
 Sum of electronic and zero-point Energies=          -1034.558607
 Sum of electronic and thermal Energies=             -1034.538571
 Sum of electronic and thermal Enthalpies=           -1034.537627
 Sum of electronic and thermal Free Energies=        -1034.609495

                     E (Thermal)             CV                S
                      KCal/Mol        Cal/Mol-Kelvin    Cal/Mol-Kelvin
 Total                  208.298             78.536            151.259
 Electronic               0.000              0.000              0.000
 Translational            0.889              2.981             43.149
 Rotational               0.889              2.981             35.374
 Vibrational            206.520             72.575             72.737
 Vibration     1          0.593              1.986              6.816
 Vibration     2          0.593              1.985              6.098
 Vibration     3          0.594              1.984              5.764
 Vibration     4          0.595              1.979              4.933
 Vibration     5          0.598              1.968              4.113
 Vibration     6          0.600              1.961              3.823
 Vibration     7          0.603              1.953              3.555
 Vibration     8          0.612              1.923              2.935
 Vibration     9          0.620              1.897              2.608
 Vibration    10          0.625              1.881              2.447
 Vibration    11          0.628              1.870              2.358
 Vibration    12          0.645              1.818              1.998
 Vibration    13          0.653              1.792              1.861
 Vibration    14          0.670              1.741              1.644
 Vibration    15          0.685              1.695              1.484
 Vibration    16          0.688              1.688              1.459
 Vibration    17          0.696              1.663              1.385
 Vibration    18          0.717              1.604              1.232
 Vibration    19          0.747              1.520              1.053
 Vibration    20          0.756              1.495              1.007
 Vibration    21          0.772              1.454              0.935
 Vibration    22          0.776              1.443              0.918
 Vibration    23          0.790              1.408              0.863
 Vibration    24          0.806              1.367              0.804
 Vibration    25          0.814              1.349              0.779
 Vibration    26          0.850              1.262              0.672
 Vibration    27          0.881              1.193              0.596
 Vibration    28          0.889              1.176              0.579
 Vibration    29          0.897              1.157              0.561
 Vibration    30          0.910              1.129              0.534
 Vibration    31          0.945              1.059              0.472

 Optimization completed.
    -- Stationary point found.

 1\1\GINC-CN066\Freq\RM06\6-31+G(d,p)\C21H16O3\UVIQOANV\08-Oct-2010\0\\
 #N Geom=AllCheck Guess=TCheck SCRF=Check GenChk RM06/6-31+G(d,p) Freq\
 \mirta 1 trienone reactive conformer\\0,1\C,6.0011411621,-0.8751231098
 ,0.1419456885\C,5.8710366348,0.1799386284,-0.7678551493\C,4.6339222058
 ,0.7733786633,-0.9557106866\C,3.5164468882,0.3348829261,-0.2348802806\
 C,3.6707347848,-0.7200139213,0.6639877709\C,4.9037279749,-1.3330606764
 ,0.858493303\H,6.9689512798,-1.3468866277,0.2913694142\H,6.7361640599,
 0.5293035358,-1.3243230572\H,4.498499116,1.592142366,-1.6581319863\C,2

 Normal termination of Gaussian 09 at Fri Oct  8 09:04:52 2010.
