 Gaussian 09, Revision A.01,
 Gaussian 09:  EM64L-G09RevA.01  8-May-2009

 ---------------------------------------------
 #opbe 6-31G* td=(nstates=10) gfinput pop=full
 ---------------------------------------------

 ----------------------
 opbe 6-31G* vacuo geom
 ----------------------
 Symbolic Z-matrix:
 Charge =  0 Multiplicity = 1

                         Standard orientation:
 ---------------------------------------------------------------------
 Center     Atomic      Atomic             Coordinates (Angstroms)
 Number     Number       Type             X           Y           Z
 ---------------------------------------------------------------------
      1          6           0        0.000000    1.200185   -0.674878
      2          6           0        0.000000    1.140066    0.722676
      3          7           0        0.000000    0.000000    1.427266
      4          6           0        0.000000   -1.140066    0.722676
      5          6           0        0.000000   -1.200185   -0.674878
      6          6           0        0.000000    0.000000   -1.389268
      7          1           0        0.000000    2.163316   -1.186997
      8          1           0        0.000000    2.061817    1.312940
      9          1           0        0.000000   -2.061817    1.312940
     10          1           0        0.000000   -2.163316   -1.186997
     11          1           0        0.000000    0.000000   -2.480723
 ---------------------------------------------------------------------

 SCF Done:  E(RO-PBE) =  -248.180115762     A.U. after   15 cycles

 Excitation energies and oscillator strengths:

 Excited State   1:      Singlet-B1     4.5461 eV  272.73 nm  f=0.0030  <S**2>=0.000
      21 -> 22         0.70618
 This state for optimization and/or second-order correction.
 Copying the excited state density for this state as the 1-particle RhoCI density.

 Excited State   2:      Singlet-A2     4.6236 eV  268.16 nm  f=0.0000  <S**2>=0.000
      21 -> 23         0.70698

 Excited State   3:      Singlet-B2     5.5075 eV  225.12 nm  f=0.0229  <S**2>=0.000
      19 -> 23         0.37667
      20 -> 22         0.59742

 Excited State   4:      Singlet-A1     6.4189 eV  193.16 nm  f=0.0140  <S**2>=0.000
      19 -> 22        -0.41835
      20 -> 23         0.56312

 Excited State   5:      Singlet-A2     7.2508 eV  170.99 nm  f=0.0000  <S**2>=0.000
      18 -> 22         0.70632

 Excited State   6:      Singlet-B2     7.4286 eV  166.90 nm  f=0.3723  <S**2>=0.000
      19 -> 23         0.58642
      20 -> 22        -0.36654

 Excited State   7:      Singlet-A1     7.4820 eV  165.71 nm  f=0.3250  <S**2>=0.000
      19 -> 22         0.50090
      20 -> 23         0.37989
      21 -> 24         0.31091

 Excited State   8:      Singlet-B1     7.6530 eV  162.01 nm  f=0.0038  <S**2>=0.000
      18 -> 23         0.70621

 Excited State   9:      Singlet-A1     7.7717 eV  159.53 nm  f=0.1003  <S**2>=0.000
      16 -> 22        -0.10536
      19 -> 22        -0.24578
      20 -> 23        -0.17533
      21 -> 24         0.62615

 Excited State  10:      Singlet-B1     8.3380 eV  148.70 nm  f=0.0009  <S**2>=0.000
      17 -> 22         0.67524
      21 -> 25        -0.20536

 The electronic state is 1-A1.
 Alpha  occ. eigenvalues --  -14.00013  -9.93140  -9.93139  -9.92233  -9.91272
 Alpha  occ. eigenvalues --   -9.91271  -0.86873  -0.73887  -0.69693  -0.57322
 Alpha  occ. eigenvalues --   -0.57045  -0.47620  -0.42770  -0.42163  -0.37865
 Alpha  occ. eigenvalues --   -0.35577  -0.35488  -0.31671  -0.25957  -0.23626
 Alpha  occ. eigenvalues --   -0.20890
 Alpha virt. eigenvalues --   -0.05318  -0.04026   0.07029   0.10362   0.11718
 Alpha virt. eigenvalues --    0.13429   0.15346   0.15476   0.21046   0.26421
 Alpha virt. eigenvalues --    0.28291   0.28719   0.41641   0.44326   0.50381

 Mulliken atomic charges:
              1
     1  C   -0.205393
     2  C    0.022582
     3  N   -0.422967
     4  C    0.022582
     5  C   -0.205393
     6  C   -0.138230
     7  H    0.185051
     8  H    0.183636
     9  H    0.183636
    10  H    0.185051
    11  H    0.189444
 Sum of Mulliken atomic charges =   0.00000

 Dipole moment (field-independent basis, Debye):
    X=              0.0000    Y=              0.0000    Z=             -2.1551  Tot=              2.1551
 Quadrupole moment (field-independent basis, Debye-Ang):
   XX=            -36.8413   YY=            -28.3313   ZZ=            -34.8949
   XY=              0.0000   XZ=              0.0000   YZ=              0.0000

 Normal termination of Gaussian 09 at Thu May  5 12:38:15 2011.
